# vtk DataFile Version 1.0
Magnetic Field Deltas
ASCII

DATASET UNSTRUCTURED_GRID
POINTS  1458  float

15.845 9.5865 12.661
15.845 9.5865 12.876
15.845 9.5865 13.091
15.845 9.5865 13.306
15.845 9.5865 13.521
15.845 9.5865 13.736
15.845 9.5865 13.951
15.845 9.5865 14.166
15.845 9.5865 14.381
15.845 9.5865 14.596
15.845 9.5865 14.811
15.845 9.5865 15.026
15.845 9.5865 15.241
15.845 9.5865 15.456
15.845 9.5865 15.671
15.845 9.5865 15.886
15.845 9.5865 16.101
15.845 9.5865 16.316
16.06 8.9415 12.661
16.06 8.9415 12.876
16.06 8.9415 13.091
16.06 8.9415 13.306
16.06 8.9415 13.521
16.06 8.9415 13.736
16.06 8.9415 13.951
16.06 8.9415 14.166
16.06 8.9415 14.381
16.06 8.9415 14.596
16.06 8.9415 14.811
16.06 8.9415 15.026
16.06 8.9415 15.241
16.06 8.9415 15.456
16.06 8.9415 15.671
16.06 8.9415 15.886
16.06 8.9415 16.101
16.06 8.9415 16.316
16.06 9.1565 12.661
16.06 9.1565 12.876
16.06 9.1565 13.091
16.06 9.1565 13.306
16.06 9.1565 13.521
16.06 9.1565 13.736
16.06 9.1565 13.951
16.06 9.1565 14.166
16.06 9.1565 14.381
16.06 9.1565 14.596
16.06 9.1565 14.811
16.06 9.1565 15.026
16.06 9.1565 15.241
16.06 9.1565 15.456
16.06 9.1565 15.671
16.06 9.1565 15.886
16.06 9.1565 16.101
16.06 9.1565 16.316
16.06 9.3715 12.661
16.06 9.3715 12.876
16.06 9.3715 13.091
16.06 9.3715 13.306
16.06 9.3715 13.521
16.06 9.3715 13.736
16.06 9.3715 13.951
16.06 9.3715 14.166
16.06 9.3715 14.381
16.06 9.3715 14.596
16.06 9.3715 14.811
16.06 9.3715 15.026
16.06 9.3715 15.241
16.06 9.3715 15.456
16.06 9.3715 15.671
16.06 9.3715 15.886
16.06 9.3715 16.101
16.06 9.3715 16.316
16.06 9.5865 12.661
16.06 9.5865 12.876
16.06 9.5865 13.091
16.06 9.5865 13.306
16.06 9.5865 13.521
16.06 9.5865 13.736
16.06 9.5865 13.951
16.06 9.5865 14.166
16.06 9.5865 14.381
16.06 9.5865 14.596
16.06 9.5865 14.811
16.06 9.5865 15.026
16.06 9.5865 15.241
16.06 9.5865 15.456
16.06 9.5865 15.671
16.06 9.5865 15.886
16.06 9.5865 16.101
16.06 9.5865 16.316
16.06 9.8015 12.661
16.06 9.8015 12.876
16.06 9.8015 13.091
16.06 9.8015 13.306
16.06 9.8015 13.521
16.06 9.8015 13.736
16.06 9.8015 13.951
16.06 9.8015 14.166
16.06 9.8015 14.381
16.06 9.8015 14.596
16.06 9.8015 14.811
16.06 9.8015 15.026
16.06 9.8015 15.241
16.06 9.8015 15.456
16.06 9.8015 15.671
16.06 9.8015 15.886
16.06 9.8015 16.101
16.06 9.8015 16.316
16.06 10.0165 12.661
16.06 10.0165 12.876
16.06 10.0165 13.091
16.06 10.0165 13.306
16.06 10.0165 13.521
16.06 10.0165 13.736
16.06 10.0165 13.951
16.06 10.0165 14.166
16.06 10.0165 14.381
16.06 10.0165 14.596
16.06 10.0165 14.811
16.06 10.0165 15.026
16.06 10.0165 15.241
16.06 10.0165 15.456
16.06 10.0165 15.671
16.06 10.0165 15.886
16.06 10.0165 16.101
16.06 10.0165 16.316
16.06 10.2315 12.661
16.06 10.2315 12.876
16.06 10.2315 13.091
16.06 10.2315 13.306
16.06 10.2315 13.521
16.06 10.2315 13.736
16.06 10.2315 13.951
16.06 10.2315 14.166
16.06 10.2315 14.381
16.06 10.2315 14.596
16.06 10.2315 14.811
16.06 10.2315 15.026
16.06 10.2315 15.241
16.06 10.2315 15.456
16.06 10.2315 15.671
16.06 10.2315 15.886
16.06 10.2315 16.101
16.06 10.2315 16.316
16.275 10.4465 12.661
16.275 10.4465 12.876
16.275 10.4465 13.091
16.275 10.4465 13.306
16.275 10.4465 13.521
16.275 10.4465 13.736
16.275 10.4465 13.951
16.275 10.4465 14.166
16.275 10.4465 14.381
16.275 10.4465 14.596
16.275 10.4465 14.811
16.275 10.4465 15.026
16.275 10.4465 15.241
16.275 10.4465 15.456
16.275 10.4465 15.671
16.275 10.4465 15.886
16.275 10.4465 16.101
16.275 10.4465 16.316
16.275 10.2315 12.661
16.275 10.2315 12.876
16.275 10.2315 13.091
16.275 10.2315 13.306
16.275 10.2315 13.521
16.275 10.2315 13.736
16.275 10.2315 13.951
16.275 10.2315 14.166
16.275 10.2315 14.381
16.275 10.2315 14.596
16.275 10.2315 14.811
16.275 10.2315 15.026
16.275 10.2315 15.241
16.275 10.2315 15.456
16.275 10.2315 15.671
16.275 10.2315 15.886
16.275 10.2315 16.101
16.275 10.2315 16.316
16.275 10.0165 12.661
16.275 10.0165 12.876
16.275 10.0165 13.091
16.275 10.0165 13.306
16.275 10.0165 13.521
16.275 10.0165 13.736
16.275 10.0165 13.951
16.275 10.0165 14.166
16.275 10.0165 14.381
16.275 10.0165 14.596
16.275 10.0165 14.811
16.275 10.0165 15.026
16.275 10.0165 15.241
16.275 10.0165 15.456
16.275 10.0165 15.671
16.275 10.0165 15.886
16.275 10.0165 16.101
16.275 10.0165 16.316
16.275 9.8015 12.661
16.275 9.8015 12.876
16.275 9.8015 13.091
16.275 9.8015 13.306
16.275 9.8015 13.521
16.275 9.8015 13.736
16.275 9.8015 13.951
16.275 9.8015 14.166
16.275 9.8015 14.381
16.275 9.8015 14.596
16.275 9.8015 14.811
16.275 9.8015 15.026
16.275 9.8015 15.241
16.275 9.8015 15.456
16.275 9.8015 15.671
16.275 9.8015 15.886
16.275 9.8015 16.101
16.275 9.8015 16.316
16.275 9.5865 12.661
16.275 9.5865 12.876
16.275 9.5865 13.091
16.275 9.5865 13.306
16.275 9.5865 13.521
16.275 9.5865 13.736
16.275 9.5865 13.951
16.275 9.5865 14.166
16.275 9.5865 14.381
16.275 9.5865 14.596
16.275 9.5865 14.811
16.275 9.5865 15.026
16.275 9.5865 15.241
16.275 9.5865 15.456
16.275 9.5865 15.671
16.275 9.5865 15.886
16.275 9.5865 16.101
16.275 9.5865 16.316
16.275 9.3715 12.661
16.275 9.3715 12.876
16.275 9.3715 13.091
16.275 9.3715 13.306
16.275 9.3715 13.521
16.275 9.3715 13.736
16.275 9.3715 13.951
16.275 9.3715 14.166
16.275 9.3715 14.381
16.275 9.3715 14.596
16.275 9.3715 14.811
16.275 9.3715 15.026
16.275 9.3715 15.241
16.275 9.3715 15.456
16.275 9.3715 15.671
16.275 9.3715 15.886
16.275 9.3715 16.101
16.275 9.3715 16.316
16.275 9.1565 12.661
16.275 9.1565 12.876
16.275 9.1565 13.091
16.275 9.1565 13.306
16.275 9.1565 13.521
16.275 9.1565 13.736
16.275 9.1565 13.951
16.275 9.1565 14.166
16.275 9.1565 14.381
16.275 9.1565 14.596
16.275 9.1565 14.811
16.275 9.1565 15.026
16.275 9.1565 15.241
16.275 9.1565 15.456
16.275 9.1565 15.671
16.275 9.1565 15.886
16.275 9.1565 16.101
16.275 9.1565 16.316
16.275 8.9415 12.661
16.275 8.9415 12.876
16.275 8.9415 13.091
16.275 8.9415 13.306
16.275 8.9415 13.521
16.275 8.9415 13.736
16.275 8.9415 13.951
16.275 8.9415 14.166
16.275 8.9415 14.381
16.275 8.9415 14.596
16.275 8.9415 14.811
16.275 8.9415 15.026
16.275 8.9415 15.241
16.275 8.9415 15.456
16.275 8.9415 15.671
16.275 8.9415 15.886
16.275 8.9415 16.101
16.275 8.9415 16.316
16.275 8.7265 12.661
16.275 8.7265 12.876
16.275 8.7265 13.091
16.275 8.7265 13.306
16.275 8.7265 13.521
16.275 8.7265 13.736
16.275 8.7265 13.951
16.275 8.7265 14.166
16.275 8.7265 14.381
16.275 8.7265 14.596
16.275 8.7265 14.811
16.275 8.7265 15.026
16.275 8.7265 15.241
16.275 8.7265 15.456
16.275 8.7265 15.671
16.275 8.7265 15.886
16.275 8.7265 16.101
16.275 8.7265 16.316
16.49 8.7265 12.661
16.49 8.7265 12.876
16.49 8.7265 13.091
16.49 8.7265 13.306
16.49 8.7265 13.521
16.49 8.7265 13.736
16.49 8.7265 13.951
16.49 8.7265 14.166
16.49 8.7265 14.381
16.49 8.7265 14.596
16.49 8.7265 14.811
16.49 8.7265 15.026
16.49 8.7265 15.241
16.49 8.7265 15.456
16.49 8.7265 15.671
16.49 8.7265 15.886
16.49 8.7265 16.101
16.49 8.7265 16.316
16.49 8.9415 12.661
16.49 8.9415 12.876
16.49 8.9415 13.091
16.49 8.9415 13.306
16.49 8.9415 13.521
16.49 8.9415 13.736
16.49 8.9415 13.951
16.49 8.9415 14.166
16.49 8.9415 14.381
16.49 8.9415 14.596
16.49 8.9415 14.811
16.49 8.9415 15.026
16.49 8.9415 15.241
16.49 8.9415 15.456
16.49 8.9415 15.671
16.49 8.9415 15.886
16.49 8.9415 16.101
16.49 8.9415 16.316
16.49 9.1565 12.661
16.49 9.1565 12.876
16.49 9.1565 13.091
16.49 9.1565 13.306
16.49 9.1565 13.521
16.49 9.1565 13.736
16.49 9.1565 13.951
16.49 9.1565 14.166
16.49 9.1565 14.381
16.49 9.1565 14.596
16.49 9.1565 14.811
16.49 9.1565 15.026
16.49 9.1565 15.241
16.49 9.1565 15.456
16.49 9.1565 15.671
16.49 9.1565 15.886
16.49 9.1565 16.101
16.49 9.1565 16.316
16.49 9.3715 12.661
16.49 9.3715 12.876
16.49 9.3715 13.091
16.49 9.3715 13.306
16.49 9.3715 13.521
16.49 9.3715 13.736
16.49 9.3715 13.951
16.49 9.3715 14.166
16.49 9.3715 14.381
16.49 9.3715 14.596
16.49 9.3715 14.811
16.49 9.3715 15.026
16.49 9.3715 15.241
16.49 9.3715 15.456
16.49 9.3715 15.671
16.49 9.3715 15.886
16.49 9.3715 16.101
16.49 9.3715 16.316
16.49 9.5865 12.661
16.49 9.5865 12.876
16.49 9.5865 13.091
16.49 9.5865 13.306
16.49 9.5865 13.521
16.49 9.5865 13.736
16.49 9.5865 13.951
16.49 9.5865 14.166
16.49 9.5865 14.381
16.49 9.5865 14.596
16.49 9.5865 14.811
16.49 9.5865 15.026
16.49 9.5865 15.241
16.49 9.5865 15.456
16.49 9.5865 15.671
16.49 9.5865 15.886
16.49 9.5865 16.101
16.49 9.5865 16.316
16.49 9.8015 12.661
16.49 9.8015 12.876
16.49 9.8015 13.091
16.49 9.8015 13.306
16.49 9.8015 13.521
16.49 9.8015 13.736
16.49 9.8015 13.951
16.49 9.8015 14.166
16.49 9.8015 14.381
16.49 9.8015 14.596
16.49 9.8015 14.811
16.49 9.8015 15.026
16.49 9.8015 15.241
16.49 9.8015 15.456
16.49 9.8015 15.671
16.49 9.8015 15.886
16.49 9.8015 16.101
16.49 9.8015 16.316
16.49 10.0165 12.661
16.49 10.0165 12.876
16.49 10.0165 13.091
16.49 10.0165 13.306
16.49 10.0165 13.521
16.49 10.0165 13.736
16.49 10.0165 13.951
16.49 10.0165 14.166
16.49 10.0165 14.381
16.49 10.0165 14.596
16.49 10.0165 14.811
16.49 10.0165 15.026
16.49 10.0165 15.241
16.49 10.0165 15.456
16.49 10.0165 15.671
16.49 10.0165 15.886
16.49 10.0165 16.101
16.49 10.0165 16.316
16.49 10.2315 12.661
16.49 10.2315 12.876
16.49 10.2315 13.091
16.49 10.2315 13.306
16.49 10.2315 13.521
16.49 10.2315 13.736
16.49 10.2315 13.951
16.49 10.2315 14.166
16.49 10.2315 14.381
16.49 10.2315 14.596
16.49 10.2315 14.811
16.49 10.2315 15.026
16.49 10.2315 15.241
16.49 10.2315 15.456
16.49 10.2315 15.671
16.49 10.2315 15.886
16.49 10.2315 16.101
16.49 10.2315 16.316
16.49 10.4465 12.661
16.49 10.4465 12.876
16.49 10.4465 13.091
16.49 10.4465 13.306
16.49 10.4465 13.521
16.49 10.4465 13.736
16.49 10.4465 13.951
16.49 10.4465 14.166
16.49 10.4465 14.381
16.49 10.4465 14.596
16.49 10.4465 14.811
16.49 10.4465 15.026
16.49 10.4465 15.241
16.49 10.4465 15.456
16.49 10.4465 15.671
16.49 10.4465 15.886
16.49 10.4465 16.101
16.49 10.4465 16.316
16.705 10.4465 12.661
16.705 10.4465 12.876
16.705 10.4465 13.091
16.705 10.4465 13.306
16.705 10.4465 13.521
16.705 10.4465 13.736
16.705 10.4465 13.951
16.705 10.4465 14.166
16.705 10.4465 14.381
[...]
POINT_DATA  1458
VECTORS delta-B,Gauss float
-0.101693396205 -0.0468211080636 -0.023774163121
-0.102068396205 -0.0418558580636 -0.021251746454
-0.101318396205 -0.0380146080636 -0.019847246454
-0.100893396205 -0.0344363580636 -0.017755496454
-0.0998433962047 -0.0314563580636 -0.014238746454
-0.0953733962047 -0.0289132280636 -0.00778519645405
-0.0828933962047 -0.0288073830636 -0.00219324645405
-0.0624683962047 -0.0306508580636 -0.00753699645405
-0.0496933962047 -0.0306123080636 -0.019237596454
-0.0488433962047 -0.0284325580636 -0.027577496454
-0.0510933962047 -0.0252191080636 -0.037271471454
-0.0683733962047 -0.0175063880636 -0.038620136454
-0.0842933962047 -0.0105595080636 -0.031801196454
-0.0891933962047 -0.00607110806356 -0.026133246454
-0.0902183962047 -0.00294360806356 -0.023918246454
-0.0910533962047 -0.000258168063558 -0.022193596454
-0.0916933962047 0.00178204193644 -0.020406996454
-0.0929933962047 0.00329272526974 -0.017775663121
-0.0725433962047 -0.0209028080636 -0.0321877297873
-0.0738183962047 -0.0156344330636 -0.031119221454
-0.0747683962047 -0.0120200330636 -0.029790621454
-0.0747333962047 -0.00794662806356 -0.028332796454
-0.0747683962047 -0.00389138306356 -0.027017496454
-0.0740183962047 0.000916316936442 -0.026076246454
-0.0735933962047 0.00615537193644 -0.025824796454
-0.0723933962047 0.0116169419364 -0.026254246454
-0.0720433962047 0.0165882919364 -0.027556996454
-0.0722183962047 0.0196168919364 -0.028300246454
-0.0725533962047 0.0218568719364 -0.027970196454
-0.0732183962047 0.0222703669364 -0.026600496454
-0.0742433962047 0.0223607919364 -0.024646496454
-0.0748733962047 0.0229768319364 -0.022127996454
-0.0754433962047 0.0242392419364 -0.019322996454
-0.0760433962047 0.0257123669364 -0.016879996454
-0.0763683962047 0.0274439669364 -0.014122746454
-0.0768433962047 0.0297961919364 -0.011149746454
-0.0573767295047 -0.0292998580636 -0.023879496454
-0.0585183962047 -0.0254516330636 -0.022483496454
-0.0584733962047 -0.0211973080636 -0.021407396454
-0.0590933962047 -0.0168362330636 -0.019877996454
-0.0584183962047 -0.0129546080636 -0.018264996454
-0.0575933962047 -0.00866430806356 -0.016773496454
-0.0551933962047 -0.00344755806356 -0.016147246454
-0.0522933962047 0.00276419193644 -0.017486796454
-0.0507433962047 0.00891151693644 -0.019953746454
-0.0501183962047 0.0122242919364 -0.023124496454
-0.0511333962047 0.0146572319364 -0.025254796454
-0.0531183962047 0.0150113419364 -0.025358996454
-0.0555183962047 0.0150373419364 -0.024162496454
-0.0565433962047 0.0157393919364 -0.022396746454
-0.0572933962047 0.0171697719364 -0.020548596454
-0.0576433962047 0.0187378919364 -0.018717496454
-0.0578933962047 0.0209781169364 -0.016920996454
-0.0583933962047 0.0235799169364 -0.014152496454
-0.0467533962047 -0.0349979080636 -0.017441996454
-0.0476533962047 -0.0309807080636 -0.015902996454
-0.0475183962047 -0.0272911330636 -0.014666496454
-0.0475433962047 -0.0232116580636 -0.013363496454
-0.0467933962047 -0.0191124480636 -0.011099396454
-0.0447683962047 -0.0145659080636 -0.00878874645405
-0.0404933962047 -0.0109948830636 -0.00766424645405
-0.0351683962047 -0.00725978306356 -0.00948574645405
-0.0303933962047 -0.00253944806356 -0.013688396454
-0.0293933962047 0.000894691936442 -0.018126996454
-0.0308433962047 0.00300556693644 -0.021037746454
-0.0355933962047 0.00446325193644 -0.021781996454
-0.0401183962047 0.00566336693644 -0.019724996454
-0.0422683962047 0.00703329193644 -0.017740246454
-0.0436183962047 0.00878666693644 -0.015643496454
-0.0444533962047 0.0113145919364 -0.013631396454
-0.0447933962047 0.0138353669364 -0.011241996454
-0.0446600629047 0.0151479252697 -0.00852766312105
-0.0392267295047 -0.0362477747306 -0.010956329787
-0.0404933962047 -0.0323651080636 -0.00917024645405
-0.0400933962047 -0.0287167830636 -0.00789799645405
-0.0401683962047 -0.0252663080636 -0.00654949645405
-0.0383333962047 -0.0223414080636 -0.00451159645405
-0.0352933962047 -0.0191020080636 -0.00201024645405
-0.0300933962047 -0.0173228580636 -0.00119049645405
-0.0225433962047 -0.0157935080636 -0.00326724645405
-0.0176533962047 -0.0135466880636 -0.00821259645405
-0.0160433962047 -0.0112793080636 -0.012849496454
-0.0181183962047 -0.00843155806356 -0.016025496454
-0.0225683962047 -0.00496818306356 -0.017491496454
-0.0281933962047 -0.00175722806356 -0.015712396454
-0.0321433962047 0.00200609193644 -0.012961996454
-0.0334683962047 0.00473726693644 -0.011129746454
-0.0339183962047 0.00649051693644 -0.00946049645405
-0.0345733962047 0.00874343193644 -0.00717079645405
-0.0348267295047 0.0104724586031 -0.00480899645405
-0.0328267295047 -0.0333912747306 -0.00481899645405
-0.0334433962047 -0.0289623080636 -0.00353149645405
-0.0327683962047 -0.0264683330636 -0.00270224645405
-0.0316333962047 -0.0228895080636 -0.00174319645405
-0.0299433962047 -0.0207647330636 -0.000376496454048
-0.0272933962047 -0.0197870330636 0.000916253545952
-0.0230433962047 -0.0188650830636 0.00136925354595
-0.0175433962047 -0.0195760080636 -0.000579996454048
-0.0130133962047 -0.0188608680636 -0.00397859645405
-0.0120933962047 -0.0162288580636 -0.00772499645405
-0.0129933962047 -0.0126919080636 -0.010228996454
-0.0159683962047 -0.00902608306356 -0.011220996454
-0.0201333962047 -0.00371802806356 -0.00990619645405
-0.0220183962047 -0.000376133063558 -0.00811674645405
-0.0234433962047 0.00291509193644 -0.00637149645405
-0.0244133962047 0.00555937193644 -0.00489839645405
-0.0248433962047 0.00786039193644 -0.00272749645405
-0.0253933962047 0.00978879193644 -0.000554329787048
-0.0178533962047 -0.0383981080636 0.000243403545952
-0.0168533962047 -0.0347291080636 0.00152600354595
-0.0164683962047 -0.0319903580636 0.00185300354595
-0.0156683962047 -0.0297377830636 0.00242725354595
-0.0142183962047 -0.0279244330636 0.00244300354595
-0.0120333962047 -0.0271351880636 0.00289360354595
-0.00956839620472 -0.0263950830636 0.00253475354595
-0.00634339620472 -0.0265760830636 0.00107925354595
-0.00427339620472 -0.0259255680636 -0.00131199645405
-0.00341839620472 -0.0239698580636 -0.00344974645405
-0.00319339620472 -0.0219279080636 -0.00506324645405
-0.00466839620472 -0.0175296830636 -0.00497199645405
-0.00617339620472 -0.0131158680636 -0.00430799645405
-0.00701839620472 -0.00893133306356 -0.00343474645405
-0.00726839620472 -0.00588580806356 -0.00242224645405
-0.00726839620472 -0.00356825806356 -0.00155724645405
-0.00793339620472 -0.000526728063558 0.000280003545952
-0.00796006290472 0.00105842526974 0.00196333687895
0.00302660379528 -0.0700375080636 0.00372420354595
0.00350660379528 -0.0680975080636 0.00412780354595
0.00438160379528 -0.0655408580636 0.00446325354595
0.00558660379528 -0.0633611080636 0.00438820354595
0.00655660379528 -0.0617643580636 0.00419400354595
0.00803160379528 -0.0611311080636 0.00350125354595
0.00885660379528 -0.0599211080636 0.00276850354595
0.0109866037953 -0.0593957080636 0.00137520354595
0.0120816037953 -0.0586418580636 6.65035459521e-05
0.0128566037953 -0.0571218580636 -0.00106849645405
0.0133566037953 -0.0551111080636 -0.00134299645405
0.0131466037953 -0.0514959080636 -0.00121819645405
0.0131316037953 -0.0475101080636 -0.000498246454048
0.0133316037953 -0.0439748580636 0.000305503545952
0.0134466037953 -0.0402753080636 0.000992203545952
0.0138066037953 -0.0370761080636 0.00167450354595
0.0133816037953 -0.0336271080636 0.00238700354595
0.0141732704953 -0.0315134413966 0.00329233687895
-0.0214600629047 -0.0646176080636 0.00728250354595
-0.0213933962047 -0.0625223580636 0.00761350354595
-0.0210333962047 -0.0603675080636 0.00742480354595
-0.0205683962047 -0.0585298580636 0.00673325354595
-0.0199933962047 -0.0562043580636 0.00610125354595
-0.0187733962047 -0.0549275080636 0.00482760354595
-0.0174683962047 -0.0547881080636 0.00387825354595
-0.0157183962047 -0.0546156080636 0.00294675354595
-0.0139433962047 -0.0549993580636 0.00246350354595
-0.0126433962047 -0.0543703580636 0.00218375354595
-0.0113133962047 -0.0531567080636 0.00178660354595
-0.0103933962047 -0.0518723580636 0.00245825354595
-0.00911339620472 -0.0503521080636 0.00310940354595
-0.00811839620472 -0.0481041080636 0.00391850354595
-0.00704339620472 -0.0463001080636 0.00447900354595
-0.00586839620472 -0.0445001080636 0.00464125354595
-0.00481339620472 -0.0427181080636 0.00459140354595
-0.00412672950472 -0.0419751080636 0.00516567021295
-0.00737672950472 -0.0549342747306 0.00680433687895
-0.00676839620472 -0.0508301080636 0.00690650354595
-0.00674339620472 -0.0487718580636 0.00651950354595
-0.00603339620472 -0.0459741080636 0.00642700354595
-0.00521839620472 -0.0439103580636 0.00624425354595
-0.00409339620472 -0.0422911080636 0.00565925354595
-0.00331839620472 -0.0402323580636 0.00482975354595
-0.00201339620472 -0.0396899080636 0.00412760354595
-0.000243396204723 -0.0386046080636 0.00282975354595
3.16037952768e-05 -0.0371276080636 0.00199525354595
0.000456603795277 -0.0358876080636 0.00149675354595
0.000666603795276 -0.0330445080636 0.00164400354595
0.000906603795276 -0.0297803580636 0.00192925354595
0.00135660379528 -0.0268258580636 0.00292625354595
0.00210660379528 -0.0243833830636 0.00328750354595
0.00188660379528 -0.0216557880636 0.00411960354595
0.00235660379528 -0.0188564330636 0.00500225354595
0.00283160379528 -0.0174307080636 0.00593400354595
0.00113993709528 -0.0396639413966 0.00557933687895
0.000256603795277 -0.0357196080636 0.00541975354595
0.000306603795277 -0.0326751080636 0.00572000354595
0.00106660379528 -0.0301569680636 0.00598380354595
0.00183160379528 -0.0279630080636 0.00581175354595
0.00288160379528 -0.0268603330636 0.00557250354595
0.00436660379528 -0.0255430080636 0.00484000354595
0.00640660379528 -0.0241621413969 0.00416833687895
0.00722660379528 -0.0231479480636 0.00271900354595
0.00788160379528 -0.0219665580636 0.00146100354595
0.00800660379528 -0.0192676280636 0.000809003545952
0.00663160379528 -0.0160477830636 0.000534253545952
0.00633160379528 -0.0136614080636 0.000712503545952
0.00635660379528 -0.0111540080636 0.00132350354595
0.00566660379528 -0.00752270806356 0.00227900354595
0.00558160379528 -0.00564453306356 0.00332300354595
0.00543160379528 -0.00341290806356 0.00481425354595
0.00528160379528 -0.00179758306356 0.00666725354595
0.00444660379528 -0.0302881080636 0.00321100354595
0.00306660379528 -0.0263219280636 0.00378520354595
0.00330660379528 -0.0236726580636 0.00385825354595
0.00373160379528 -0.0206355830636 0.00435150354595
0.00482660379528 -0.0181957680636 0.00489680354595
0.00643160379528 -0.0163409080636 0.00529275354595
0.00893160379528 -0.0148157830636 0.00504825354595
0.0115316037953 -0.0138465330636 0.00378625354595
0.0130866037953 -0.0121476680636 0.00216520354595
0.0138816037953 -0.0101849580636 4.07535459521e-05
0.0130066037953 -0.00775100806356 -0.00108874645405
0.0117816037953 -0.00486043306356 -0.00158749645405
0.0101666037953 -0.00171218806356 -0.00109599645405
0.00828160379528 0.00125226693644 0.000101753545952
0.00720660379528 0.00375071693644 0.000779003545952
0.00682660379528 0.00623807193644 0.00235220354595
0.00638160379528 0.00828264193644 0.00444325354595
0.00640660379528 0.00965092526974 0.00631933687895
0.00972660379528 -0.0245711080636 0.000768003545952
0.00795660379528 -0.0207604580636 0.00123150354595
0.00734660379528 -0.0180578480636 0.00188840354595
0.00738160379528 -0.0151733830636 0.00247875354595
0.00854660379528 -0.0123407280636 0.00319080354595
0.00995660379528 -0.00930608306356 0.00425000354595
0.0120066037953 -0.00709613306356 0.00402050354595
0.0146316037953 -0.00496810806356 0.00273825354595
0.0167566037953 -0.00336138306356 0.000722753545952
0.0176866037953 -0.00110574806356 -0.00182859645405
0.0162566037953 0.00169154193644 -0.00369399645405
0.0142816037953 0.00442289193644 -0.00418849645405
0.0116466037953 0.00700645193644 -0.00374219645405
0.00918160379528 0.00959209193644 -0.00252399645405
0.00758160379528 0.0113756919364 -0.00117524645405
0.00710660379528 0.0139732669364 0.000483503545952
0.00678660379528 0.0152430919364 0.00256800354595
0.00640660379528 0.0150906252697 0.00525367021295
0.0151066037953 -0.0198631747303 -0.00228499645405
0.0135066037953 -0.0162073080636 -0.00182699645405
0.0123566037953 -0.0127265830636 -0.000966746454048
0.0118566037953 -0.0103141830636 -0.000564246454048
0.0124666037953 -0.00673702806356 0.000194003545952
0.0131066037953 -0.00331825806356 0.00150700354595
0.0149066037953 -0.00102658306356 0.000962003545952
0.0173066037953 0.00294001193644 -5.77964540479e-05
0.0185316037953 0.00618889193644 -0.00182674645405
0.0186066037953 0.00865301693644 -0.00375074645405
0.0177316037953 0.0106045919364 -0.00511424645405
0.0152466037953 0.0129169119364 -0.00570039645405
0.0127066037953 0.0151405669364 -0.00555674645405
0.0105566037953 0.0172905169364 -0.00412224645405
0.00862660379528 0.0186036319364 -0.00281399645405
0.00775660379528 0.0203878919364 -0.000854746454048
0.00710660379528 0.0225675919364 0.00131325354595
0.00643160379528 0.0245319919364 0.00375075354595
0.0186066037953 -0.0139700080636 -0.00565032978705
0.0164316037953 -0.0106846580636 -0.00533349645405
0.0151316037953 -0.00644143306356 -0.00470774645405
0.0144316037953 -0.00321063306356 -0.00370949645405
0.0144466037953 0.000151991936442 -0.00300939645405
0.0143566037953 0.00370346693644 -0.00209674645405
0.0156066037953 0.00817046693644 -0.00215249645405
0.0163816037953 0.0118238169364 -0.00296149645405
0.0172466037953 0.0155120519364 -0.00476819645405
0.0167316037953 0.0189360669364 -0.00619324645405
0.0161816037953 0.0206550169364 -0.00755224645405
0.0135466037953 0.0226495319364 -0.00750459645405
0.0115066037953 0.0238815419364 -0.00686499645405
0.0101566037953 0.0255915669364 -0.00600449645405
0.00883160379528 0.0267635669364 -0.00471774645405
0.00734660379528 0.0293731719364 -0.00300559645405
0.00668160379528 0.0314848669364 -0.00105349645405
0.00577327049528 0.0340566252697 0.00124333687895
0.0231232704953 -0.00609244139686 -0.00877816312105
0.0205316037953 -0.00120755806356 -0.00862574645405
0.0191816037953 0.00236794193644 -0.00804574645405
0.0178466037953 0.00621063193644 -0.00705639645405
0.0167316037953 0.00960936693644 -0.00645249645405
0.0166316037953 0.0127842169364 -0.00594874645405
0.0161266037953 0.0178833719364 -0.00550099645405
0.0156566037953 0.0218783919364 -0.00613199645405
0.0159566037953 0.0249326419364 -0.00750149645405
0.0150816037953 0.0278833169364 -0.00859499645405
0.0141466037953 0.0309583319364 -0.00931179645405
0.0126816037953 0.0330528919364 -0.00891074645405
0.0106316037953 0.0343322169364 -0.00839674645405
0.00924660379528 0.0362689719364 -0.00741119645405
0.00803160379528 0.0381017169364 -0.00642199645405
0.00665660379528 0.0399927419364 -0.00537899645405
0.00553160379528 0.0417158919364 -0.00379599645405
0.00463160379528 0.0450803919364 -0.00173524645405
0.0263232704953 0.00289917526974 -0.012375163121
0.0230066037953 0.00775716693644 -0.011785996454
0.0203066037953 0.0112506169364 -0.011159996454
0.0187066037953 0.0169148319364 -0.010606396454
0.0175816037953 0.0204308419364 -0.00986724645405
0.0173066037953 0.0232698419364 -0.00920624645405
0.0163266037953 0.0275707319364 -0.00896099645405
0.0159066037953 0.0316227669364 -0.00896649645405
0.0156066037953 0.0338109169364 -0.00930299645405
0.0148566037953 0.0373392919364 -0.00890574645405
0.0131466037953 0.0394466519364 -0.00824099645405
0.0110066037953 0.0419873419364 -0.00655499645405
0.00975660379528 0.0437104419364 -0.00500224645405
0.00820660379528 0.0443049419364 -0.00315449645405
0.00656660379528 0.0459702719364 -0.00171499645405
0.00433160379528 0.0480828919364 0.000392503545952
0.00310660379528 0.0493062669364 0.00231575354595
0.00200660379528 0.0516238419364 0.00401100354595
0.0178066037953 0.00634145193644 -0.00923459645405
0.0149566037953 0.0100358669364 -0.00904324645405
0.0127266037953 0.0138990519364 -0.00870919645405
0.0101316037953 0.0167305169364 -0.00846274645405
0.00888160379528 0.0208316169364 -0.00829474645405
0.00716660379528 0.0242519519364 -0.00785019645405
0.00643160379528 0.0283229419364 -0.00792824645405
0.00538160379528 0.0309505669364 -0.00792374645405
0.00393160379528 0.0343194169364 -0.00812199645405
0.00290660379528 0.0375269319364 -0.00835879645405
0.000756603795276 0.0409706669364 -0.00808099645405
-0.00106839620472 0.0422803669364 -0.00761824645405
-0.00401339620472 0.0444917919364 -0.00678759645405
-0.00639339620472 0.0465793919364 -0.00609649645405
-0.00809339620472 0.0473848919364 -0.00534324645405
-0.00991839620472 0.0492502669364 -0.00479874645405
-0.0120433962047 0.0507235169364 -0.00391824645405
-0.0131683962047 0.0537561669364 -0.00278899645405
0.0182466037953 -0.00393862806356 -0.00599359645405
0.0156666037953 -0.000182188063558 -0.00614019645405
0.0133316037953 0.00264369193644 -0.00586199645405
0.0118066037953 0.00679646693644 -0.00537899645405
0.0106666037953 0.00976705193644 -0.00476839645405
0.0101566037953 0.0129995919364 -0.00495174645405
0.00970660379528 0.0164589919364 -0.00499724645405
0.00855660379528 0.0188543169364 -0.00541974645405
0.00818660379528 0.0228734519364 -0.00557419645405
0.00713160379528 0.0256389669364 -0.00616724645405
0.00593160379528 0.0270349169364 -0.00657474645405
0.00416660379528 0.0299213519364 -0.00627839645405
0.00228160379528 0.0309764419364 -0.00563324645405
0.00120660379528 0.0325316919364 -0.00490599645405
0.000231603795276 0.0344960419364 -0.00444824645405
-0.000753396204724 0.0358176319364 -0.00324959645405
-0.00199339620472 0.0384031919364 -0.00177574645405
-0.00249339620472 0.0401337252697 -0.000268996454048
0.0181666037953 -0.0111826680636 -0.00261419645405
0.0160066037953 -0.00781902806356 -0.00263079645405
0.0148816037953 -0.00385680806356 -0.00277349645405
0.0140316037953 -0.00108673306356 -0.00243749645405
0.0133066037953 0.00156661693644 -0.00208149645405
0.0130666037953 0.00492857193644 -0.00183299645405
0.0133816037953 0.00829984193644 -0.00216299645405
0.0130316037953 0.0114445919364 -0.00247824645405
0.0131316037953 0.0135468169364 -0.00350074645405
0.0118666037953 0.0164909919364 -0.00383979645405
0.0109316037953 0.0191817669364 -0.00458549645405
0.00945660379528 0.0216241919364 -0.00450874645405
0.00800660379528 0.0227563519364 -0.00432059645405
0.00700660379528 0.0244760919364 -0.00388274645405
0.00553160379528 0.0256777669364 -0.00315499645405
0.00490660379528 0.0274139419364 -0.00174049645405
0.00428660379528 0.0292559719364 -0.000225196454048
0.00373993709528 0.0321842919364 0.00218667021295
0.0178066037953 -0.0150009080636 0.000558336878952
0.0151066037953 -0.0118520330636 0.000646253545952
0.0144816037953 -0.00945695806356 0.000295253545952
0.0141066037953 -0.00646743306356 0.000972253545952
0.0137866037953 -0.00309078806356 0.00108600354595
0.0142316037953 -0.000552733063558 0.00124700354595
0.0148466037953 0.00272289193644 0.000874603545952
0.0154566037953 0.00549129193644 0.000437503545952
0.0160566037953 0.00732626693644 -0.00104274645405
0.0158816037953 0.00969566693644 -0.00174049645405
0.0150466037953 0.0120070919364 -0.00266699645405
0.0137316037953 0.0144816919364 -0.00285974645405
0.0124816037953 0.0156790169364 -0.00257449645405
0.0113066037953 0.0178462669364 -0.00209199645405
0.00970660379528 0.0190618719364 -0.00112839645405
0.00885660379528 0.0207711919364 0.000519253545952
0.00880660379528 0.0223219419364 0.00220900354595
0.00880660379528 0.0249067669364 0.00447400354595
0.0160732704953 -0.0182547747303 0.00402567021295
0.0142566037953 -0.0176848330636 0.00382700354595
0.0135566037953 -0.0132907080636 0.00395950354595
0.0135066037953 -0.0108741080636 0.00440750354595
0.0135666037953 -0.00847732806356 0.00442080354595
0.0144816037953 -0.00560153306356 0.00440225354595
0.0155816037953 -0.00346483306356 0.00407150354595
0.0167566037953 -0.00104393306356 0.00331325354595
0.0177866037953 0.000758691936442 0.00200620354595
0.0175316037953 0.00317344193644 0.000570003545952
0.0163816037953 0.00516811693644 -0.000289996454048
0.0156466037953 0.00786123193644 -0.000798596454048
0.0143816037953 0.00995386693644 -0.000417246454048